<?xml version="1.0"?>
<VTKFile type="UnstructuredGrid" version="0.1" byte_order="LittleEndian">
  <UnstructuredGrid>
    <Piece NumberOfCells="316" NumberOfPoints="171">
      <PointData Vectors="dirichlet_data.r">
        <DataArray type="Float32" Name="dirichlet_data.r" NumberOfComponents="3" format="ascii">
          7.49727e-15 -1.29462e-14 -1 -1.38918e-14 9.31869e-15 -1 2.1986e-15 -5.58715e-17 -1 2.70704e-15 -1.81313e-14 -1
          -1.13043e-15 8.89832e-15 -1 -6.34382e-16 1.43028e-15 -1 -9.82558e-15 -3.03799e-15 -1 1.17308e-15 4.14942e-15 -1
          -5.9848e-16 -3.0342e-15 -1 4.21463e-15 -2.1313e-14 -1 -2.57218e-15 6.15836e-15 -1 1.80396e-16 3.94201e-15 -1
          -1.76555e-15 2.42073e-15 -1 7.62712 -8.34118 -0.328767 8.95032 -24.6287 0.378924 -89.812 -16.891 -1.38845
          -13.7773 14.6533 -0.322806 -4.21259 -56.3273 -0.114667 -9.01146 -29.9252 -1.10524 5.137 5.45254 0.00882324
          -4.34555 -6.99359 -0.405595 17.3455 7.26653 -0.7429 -9.73783 81.622 -0.444078 -20.0668 -18.5119 -0.512202
          62.0134 -6.79034 -0.534379 28.054 8.92373 -0.235942 25.8536 59.8637 -0.750257 -16.815 -6.26929 -1.14159
          -8.68003 -24.1323 -0.405459 -41.1447 -119.913 -1.05393 -395.104 237.241 -0.479971 58.1862 -14.5145 -0.730075
          13.9227 -32.2356 -0.71194 -50.3443 41.0801 -0.954739 34.4465 -41.2261 -0.289155 49.5913 -86.2577 -0.621655
          35.0436 104.355 -0.855347 74.1263 -36.0432 -0.119497 11.0245 -70.2267 -0.865305 -4.09022 -56.909 -0.617478
          28.049 -81.8876 -1.29059 19.3349 -39.2437 -0.298924 55.8963 277.801 -0.544325 -38.3964 -80.1094 -0.295047
          -10.126 -21.9136 -0.159312 -10.989 15.3717 -0.625281 13.5702 4.52293 -0.522436 37.6953 4.72766 -0.540452
          -13.6326 -46.3509 -0.766231 44.1849 -24.7216 -0.0617639 -14.9836 0.158016 -0.914072 -6.86481 21.3028 -0.0705613
          15.5661 -28.8179 0.0452688 -41.8249 -133.375 -0.52555 87.3272 29.378 -1.30419 -11.7254 1.07478 -0.0213443
          1.88099 -32.9035 -0.270999 29.8403 26.0108 -1.19991 6.6314 -3.4207 -0.789633 -6.29267 46.1074 -0.616721
          19.4077 -37.9527 -1.041 -88.8539 144.978 -0.851416 29.1732 -10.0537 -0.839078 58.3164 47.4432 -0.749976
          161.101 71.0275 -1.17101 -38.0852 -41.4603 -1.36858 -11.691 -10.508 -0.88565 -63.0587 -20.6757 -0.630718
          93.4119 -142.609 -1.25217 7.98321 -110.839 -0.124942 58.5367 80.2324 -0.181773 60.9834 29.9782 -0.523396
          -83.9805 -66.283 -0.744598 16.4721 82.595 -1.55069 -43.4387 31.751 -0.386661 34.5971 -21.7016 -0.583259
          -6.90719 -124.83 -0.704435 39.4259 -64.5586 -0.624131 -26.3627 -4.58526 -0.661207 -52.833 -9.92999 -1.10807
          0.569834 -4.93066 0.183042 -97.8069 37.2553 -0.48582 -53.7377 80.7055 -0.541379 52.6668 0.892956 -0.556294
          50.1749 -39.2395 -0.7497 -72.0646 -38.545 -0.593818 103.238 -86.3119 -0.997648 -66.3649 -27.9897 -0.107618
          -15.3419 -2.0887 -0.666323 -8.24976 34.2855 -1.07212 123.899 -21.8485 -0.413638 -36.0849 20.0828 -0.751137
          52.0678 17.742 -1.1322 -157.587 68.0776 -0.54898 -1.64022 30.8896 -0.487302 -55.0905 77.1542 0.529021
          36.4413 -0.610075 -0.350305 36.8469 6.96694 -0.0275406 55.9887 28.9065 -0.6406 52.8681 22.2324 -0.739727
          15.4267 -34.1078 -0.183596 -34.5621 6.59087 -0.274512 -28.4214 34.383 -0.386773 -15.2765 -12.5407 0.00231711
          54.156 22.0999 -1.33879 -81.7051 25.6457 -0.393742 -104.68 96.5215 -1.29292 6.33817 -1.58302 -0.847857
          -49.7781 -22.1725 -0.457021 -5.06405 0.989625 -0.486033 26.7858 49.4795 -0.704198 24.4147 -20.6826 -1.07027
          83.4724 -174.621 -0.888776 18.7164 60.8242 -1.43336 -13.1496 -8.11219 -0.561877 6.64267 -1.59631 -0.435247
          -12.9792 9.3722 -0.0998347 -81.2323 67.7177 -1.19344 30.9009 -73.1855 -0.16509 -110.707 19.7242 -0.307766
          30.065 -10.9463 -0.093106 -5.45572 -19.1553 -0.701631 -29.7938 36.56 -0.818626 25.1849 34.7985 -0.805408
          -21.9465 -68.2872 -0.302045 51.3307 9.33685 -1.67294 -8.41496 -52.5844 -0.748031 -63.6716 24.0585 -1.00994
          55.1635 87.9213 -1.15536 -7.40129 -53.3225 -0.139697 27.5057 -54.4998 -0.856465 53.3494 -151.866 -0.133598
          -4.03767 32.728 -1.27504 60.3627 -50.8774 -0.434702 -77.3817 7.94888 -0.454836 30.3526 -47.9081 -0.186599
          65.1012 18.7716 -0.912834 -57.2661 11.987 -0.905797 20.8667 -44.6191 -0.331151 9.7232 34.6168 -0.930657
          113.976 -47.2165 -0.147842 -25.2167 -7.21777 -0.134572 -4.47045 6.02393 -0.349302 8.54939 -59.8982 0.58868
          20.3978 28.042 -0.29057 22.294 -15.9079 -0.720268 3.04273 23.3327 -0.937109 28.7339 -16.3886 -0.344868
          -80.3342 23.8989 -0.18288 -41.043 90.4466 -0.298965 7.67761 -80.6472 -1.04189 -215.897 2.52417 -0.604061
          29.9965 8.54054 -0.408742 9.57207 62.5048 -1.31093 5.28513 2.90366 -0.22015 3.23783 17.4056 -0.43331
          -19.228 -59.2379 -0.597775 -10.1293 11.2561 -0.965235 -4.15122 -20.9053 -0.664282 -19.1923 -22.44 -0.435571
          -51.1683 -52.2872 -1.09764 -0.0829175 3.32043 -0.492785 -56.4622 -12.6936 -0.838335 -64.9246 -1.33017 -0.241167
          -12.4326 -69.215 0.245424 12.2637 -11.2531 0.0165992 91.4547 5.71901 -0.924023 -88.2057 31.71 0.626671
          66.7268 -54.149 0.421584 58.9162 38.866 -0.543203 -5.88813 22.0259 -0.748087
        </DataArray>
        <DataArray type="Float32" Name="dirichlet_data.i" NumberOfComponents="3" format="ascii">
          1.15354e-17 5.56127e-17 9.61655e-20 -6.71332e-17 3.35168e-18 -1.71438e-19 1.17055e-17 -1.80903e-17 5.72667e-20 -1.04083e-17 -8.23723e-17 1.64642e-19
          -1.46041e-18 4.98749e-17 -4.96311e-20 9.95921e-18 1.30274e-17 -1.34532e-19 -2.04241e-17 -3.72492e-17 2.90162e-19 2.96112e-18 -6.57441e-18 -1.12016e-19
          -1.77242e-18 7.56474e-18 8.09975e-20 7.47412e-18 -1.30524e-16 1.87676e-19 1.7546e-17 1.40111e-17 -1.67662e-19 -5.51609e-18 2.71447e-17 -2.04374e-20
          -1.18335e-18 3.69344e-19 -1.92621e-20 -0.092998 1.07058 0.0029104 0.0940919 -0.0557439 0.0016391 0.133696 0.0131288 -0.000563289
          -0.13748 -0.0483486 0.000734491 0.0448013 0.0312583 -0.000857093 0.0800894 0.0894387 0.000733563 -0.0919755 -0.00089338 0.0012899
          0.0584149 -0.204562 -0.00101448 -0.0736185 0.0561807 0.00192491 -0.0762557 -0.150925 0.000806992 -0.211464 -0.0951092 -0.000610155
          0.0141378 0.0345841 0.000725939 -0.0335427 0.0883904 0.00245839 0.312522 -0.0329887 0.00483563 -0.109128 -0.428663 -0.000194459
          -0.0752776 0.292747 0.0036569 -0.159306 0.165705 0.000160445 -0.77167 -0.504788 0.00298381 0.122953 0.207277 0.000988654
          0.204669 0.000788309 0.00336745 0.0304861 0.33971 -0.00115207 0.0733228 -0.265128 0.00331294 1.04115 0.0327654 0.00161855
          -0.2679 -0.075353 0.0019423 0.167825 -0.0687164 0.0027562 -0.0522662 0.220912 0.00251727 -0.0728438 -0.259877 0.00184271
          0.173861 -0.569977 -3.43512e-05 0.392638 -0.0381652 0.000959366 -0.0143202 -0.0987581 0.00271705 -0.171153 -0.0272518 0.00374177
          0.204612 0.127628 -0.00257521 0.0134635 0.0305215 0.000616215 -0.146583 -0.0374658 0.00200257 0.00653434 0.0914881 0.00237147
          0.0253298 -0.0397536 0.00210149 -0.00370529 -0.0534942 0.000378509 -0.083841 0.0448878 0.000292272 -0.0469206 0.0453295 0.000637626
          -0.0286542 0.0624936 0.0023135 0.363578 0.255103 0.00270004 -0.368108 0.0342854 0.000512407 -0.00265339 -0.0466336 -0.000705571
          -0.0915968 0.0505403 0.00135624 -0.259069 0.12597 0.00399717 0.0889157 -0.028575 0.000660946 0.174115 -0.216535 0.00101741
          -0.0636276 0.00223603 0.00241022 0.0157012 0.0413088 0.00282476 0.0874173 0.0210928 0.00234518 0.160866 0.261323 0.00248839
          -0.0311226 0.198119 0.000580205 0.155993 0.258136 0.00220776 0.141914 -0.210388 0.00383695 0.0229636 -0.0761386 0.00150544
          -0.599311 -0.40345 0.00107093 0.791635 0.0258981 0.00144356 0.419557 -0.0608405 0.000377869 0.198101 -0.258715 0.00228131
          -0.0636138 0.122329 0.00157478 -0.0359015 0.0129158 0.00372588 0.277694 -0.138927 0.000274813 0.229183 0.0802469 0.00133769
          0.269645 0.453114 0.00127971 0.127001 -0.13103 0.00304532 0.262001 0.00878383 -0.00451031 -0.00697164 -0.0348578 0.00139263
          -0.0125053 0.0468438 -0.000955501 0.335376 0.00821276 0.00210823 0.121127 1.39288 0.000148468 -0.0437162 0.0963088 0.00258721
          -0.00605586 0.0141009 0.00244101 -0.110939 0.0268236 0.00252999 0.355154 0.458827 0.00101373 -0.126953 -0.0710807 0.00204427
          -0.0843251 -0.0457924 4.86188e-05 -0.220991 -0.195774 0.00218135 -0.190011 -0.251541 -0.00120237 -0.0748684 -0.0681198 -8.72526e-05
          -0.25572 -0.0708007 5.93839e-05 -1.23064 -0.944397 0.00196678 0.0354954 -0.0379897 0.000641557 0.0545806 -0.124662 -0.00168113
          0.0364686 0.0349191 0.000459839 -0.285091 0.0950346 -0.00283999 -0.0709618 0.258778 0.00292021 0.119449 0.149171 0.00158901
          -0.0617162 0.0336631 -1.64271e-05 -0.10509 0.0659765 -0.000554481 -0.122718 -0.0574493 0.00102856 0.054829 -0.0581665 0.00130385
          -0.319037 -0.268511 -9.40943e-05 -0.432697 -0.677018 0.0033086 0.241853 -0.244457 0.00147122 -0.263864 0.731956 0.00573132
          -0.0339089 -0.0545356 -0.00363624 0.16599 -0.043891 0.000348838 -0.0721924 -0.104574 -0.0037666 -0.167838 -0.310553 -0.00643517
          0.149777 -0.314259 0.00181856 0.112532 0.0829322 -0.0024166 -0.0393353 0.0107915 -0.00276106 -0.0652172 -0.120641 3.98062e-05
          0.00772999 -0.0405672 0.00130823 -0.566603 -0.0284804 -0.00195349 0.126241 -0.0130169 0.00538629 0.137873 0.013295 0.00259193
          -0.142275 -0.266596 0.000152681 -0.246486 -0.0651929 0.00233428 0.0166673 -0.0649077 0.00282976 -0.0151425 0.0698951 0.00270853
          -0.012451 -0.0108293 0.00123348 0.110663 -0.0277903 -0.0040747 0.0446013 -0.152755 -0.00107281 0.0231664 0.364331 0.0028558
          -0.172201 -0.0618525 0.00153501 0.658805 -0.148151 0.00497037 0.163494 0.391823 -0.000303002 -0.572302 -1.28935 0.00461678
          0.218607 0.146707 -0.00364073 0.363328 0.12702 -0.00182877 -0.013803 0.36451 -0.00337476 0.153819 -0.112184 -0.00252207
          -0.106341 0.0812971 0.00210836 0.149313 -0.0195513 0.000209433 0.00905996 -0.160702 0.00185546 -0.0228724 0.133941 -0.00127619
          0.700709 -0.166177 0.00234321 -0.0304104 -0.0892724 0.000904259 -0.0708581 -0.265706 0.00491072 -0.149325 0.00819153 -0.00354313
          -0.133852 0.168832 -0.000802398 -0.129433 -0.0031408 -1.05536e-05 0.119257 -0.0737911 -0.000400748 0.136473 -0.0177856 0.0013898
          0.111441 -0.113115 0.000458205 -0.0935366 -0.29008 0.00195659 -0.129662 0.393543 0.00321532 -0.377467 0.0244083 0.00332562
          0.155199 0.0742095 0.00258428 -0.0696724 -0.20683 -7.23322e-05 -0.126752 0.0145238 0.00124677 -0.354122 -0.123478 -0.00124702
          0.233751 -0.23211 0.000537186 -0.003529 0.0223827 -5.8679e-05 0.0880815 0.110323 -0.000397638 0.000738 -0.0596349 -0.00120902
          -0.128097 0.149541 -0.000406273 -0.319533 0.906623 0.00200877 -0.252018 0.301805 0.00160972 -0.0484784 -0.0433535 0.00154277
          -0.0509183 -0.0576993 -0.000540056 0.0384845 -0.0609902 0.00133416 0.0549246 0.0670284 -0.00042869 -0.0717591 -0.0921144 0.000435739
          0.0455613 -0.0308723 -0.0011044 0.0693509 0.0646671 -0.00281788 0.0296534 -0.0965309 -0.00106513
        </DataArray>
        <DataArray type="Float32" Name="dirichlet_data.abs" NumberOfComponents="3" format="ascii">
          7.49728e-15 1.29463e-14 1 1.38919e-14 9.31869e-15 1 2.19863e-15 5.87272e-17 1 2.70706e-15 1.81315e-14 1
          1.13043e-15 8.89846e-15 1 6.3446e-16 1.43034e-15 1 9.8256e-15 3.03821e-15 1 1.17309e-15 4.14942e-15 1
          5.98482e-16 3.0342e-15 1 4.21463e-15 2.13134e-14 1 2.57224e-15 6.15838e-15 1 1.8048e-16 3.94211e-15 1
          1.76555e-15 2.42073e-15 1 7.62769 8.4096 0.328779 8.95081 24.6287 0.378927 89.8121 16.891 1.38845
          13.778 14.6534 0.322807 4.21283 56.3273 0.11467 9.01182 29.9254 1.10524 5.13783 5.45254 0.00891703
          4.34594 6.99658 0.405596 17.3457 7.26675 0.742903 9.73813 81.6221 0.444079 20.0679 18.5122 0.512202
          62.0134 6.79043 0.534379 28.054 8.92417 0.235954 25.8555 59.8637 0.750273 16.8153 6.28392 1.14159
          8.68036 24.1341 0.405476 41.145 119.913 1.05393 395.105 237.241 0.47998 58.1863 14.516 0.730076
          13.9242 32.2356 0.711948 50.3443 41.0815 0.95474 34.4465 41.2269 0.289174 49.6022 86.2577 0.621657
          35.0446 104.356 0.855349 74.1265 36.0432 0.119529 11.0246 70.227 0.865309 4.09087 56.9096 0.617481
          28.0495 81.8895 1.29059 19.3389 39.2438 0.298925 55.8963 277.801 0.544331 38.3968 80.1094 0.29507
          10.1281 21.914 0.159333 10.989 15.3717 0.625282 13.571 4.52309 0.52244 37.6953 4.72855 0.540457
          13.6326 46.3509 0.766234 44.1849 24.7216 0.061765 14.9838 0.164268 0.914072 6.86497 21.3028 0.0705642
          15.5661 28.8179 0.0453279 41.8265 133.375 0.525557 87.3279 29.378 1.30419 11.7254 1.0758 0.021356
          1.88322 32.9035 0.271003 29.8414 26.0111 1.19992 6.632 3.42082 0.789633 6.29508 46.1079 0.616722
          19.4078 37.9527 1.041 88.8539 144.978 0.851421 29.1733 10.0537 0.839082 58.3166 47.4439 0.74998
          161.101 71.0278 1.17101 38.0855 41.4611 1.36858 11.6919 10.5101 0.885658 63.0587 20.6758 0.63072
          93.4138 142.61 1.25217 8.02236 110.839 0.12495 58.5382 80.2324 0.181773 60.9838 29.9794 0.523401
          83.9805 66.2831 0.7446 16.4721 82.595 1.55069 43.4396 31.7513 0.386661 34.5979 21.7018 0.583261
          6.91245 124.831 0.704437 39.4261 64.5587 0.624139 26.364 4.58527 0.661222 52.833 9.93005 1.10807
          0.569971 4.93088 0.183045 97.8074 37.2553 0.485825 53.7378 80.7175 0.541379 52.6668 0.898135 0.5563
          50.1749 39.2395 0.749704 72.0647 38.545 0.593824 103.238 86.3131 0.997649 66.365 27.9898 0.107638
          15.3421 2.08921 0.666323 8.25272 34.2861 1.07212 123.899 21.8499 0.41364 36.0849 20.0829 0.751137
          52.0685 17.7421 1.1322 157.592 68.0841 0.548983 1.64061 30.8896 0.487303 55.0905 77.1543 0.529023
          36.4414 0.611073 0.350306 36.848 6.96758 0.0276867 55.9887 28.9076 0.640607 52.8682 22.2329 0.739729
          15.4268 34.1078 0.183596 34.5623 6.5912 0.274513 28.4217 34.3831 0.386774 15.2766 12.5408 0.00265876
          54.157 22.1015 1.33879 81.7062 25.6546 0.393755 104.681 96.5218 1.29293 6.34366 1.74405 0.847876
          49.7781 22.1726 0.457035 5.06677 0.990598 0.486033 26.7859 49.4796 0.704208 24.4153 20.685 1.07029
          83.4726 174.621 0.888778 18.7168 60.8243 1.43337 13.1496 8.1122 0.561884 6.64299 1.60086 0.435247
          12.9792 9.37229 0.0998432 81.2342 67.7177 1.19344 30.9011 73.1855 0.165178 110.707 19.7242 0.307777
          30.0653 10.9496 0.0931062 5.46128 19.1554 0.701635 29.7939 36.5601 0.818631 25.1849 34.7986 0.805412
          21.9465 68.2872 0.302047 51.3308 9.33689 1.67295 8.41508 52.5846 0.748032 63.6716 24.0612 1.00994
          55.1638 87.9213 1.15536 7.43055 53.3227 0.139785 27.5062 54.5012 0.856465 53.3525 151.871 0.133677
          4.04358 32.7283 1.27504 60.3638 50.8776 0.434706 77.3817 7.95724 0.454848 30.353 47.9082 0.186616
          65.1013 18.7718 0.912836 57.2663 11.9871 0.905797 20.8667 44.6194 0.331156 9.72322 34.617 0.930658
          113.978 47.2168 0.147861 25.2167 7.21832 0.134575 4.47101 6.02979 0.349337 8.55069 59.8982 0.58869
          20.3983 28.0426 0.290571 22.2944 15.9079 0.720268 3.04506 23.3328 0.937109 28.7342 16.3886 0.344871
          80.3343 23.8991 0.182881 41.0431 90.447 0.298971 7.67871 80.6482 1.04189 215.897 2.52429 0.60407
          29.9969 8.54086 0.40875 9.57232 62.5051 1.31093 5.28665 2.90369 0.220154 3.25714 17.4061 0.433312
          19.2294 59.2384 0.597776 10.1293 11.2561 0.965235 4.15216 20.9056 0.664282 19.1923 22.4401 0.435573
          51.1684 52.2874 1.09764 0.330116 3.44198 0.492789 56.4627 12.6972 0.838337 64.9246 1.33088 0.241172
          12.4327 69.215 0.245425 12.2638 11.2532 0.0166527 91.4547 5.7194 0.924023 88.2057 31.7101 0.626671
          66.7268 54.149 0.421585 58.9162 38.8661 0.543211 5.8882 22.0261 0.748088
        </DataArray>
      </PointData>
      <Points>
        <DataArray type="Float32" Name="Coordinates" NumberOfComponents="3" format="ascii">
          2.08167e-12 -1 0 -1 -1 0 -0.5 -0.5 0 -1 1 0
          -0.5 0.5 0 -1 -2.08167e-12 0 1 -1 0 0.5 -0.5 0
          1 2.08167e-12 0 -2.08167e-12 1 0 1 1 0 0.5 0.5 0
          9.25186e-18 4.62593e-18 0 0.45112 -2.29685 0 15.8667 -2.54999 0 14.0136 1.07843 0
          20 0 0 0 20 0 1.02732 14.0186 0 -2.57072 15.8518 0
          0 -20 0 -2.55202 -15.9483 0 1.02029 -14.0274 0 -20 0 0
          -14.066 1.11511 0 -15.4904 -2.85384 0 -5.61709 -6.27276 0 -2.89144 -6.02816 0
          -3.83609 -9.14432 0 3.32832 -0.42222 0 2.00925 -0.706942 0 1.98189 0.508947 0
          3.79638 8.23083 0 4.85061 5.52488 0 2.89954 6.03905 0 -2.27422 0.452572 0
          -5.73581 0.586202 0 -5.40297 -1.50235 0 -7.76978 -0.00472977 0 3.05961 1.56152 0
          -0.591269 -3.38417 0 -2.10715 -2.59027 0 -0.726241 -1.96777 0 7.04184 6.72568 0
          10.04 10.3551 0 10.3525 6.28305 0 12.5432 -3.0327 0 10.4352 -0.556582 0
          -0.569928 10.4212 0 -3.11124 12.4832 0 6.20086 10.4269 0 4.63317 16.1973 0
          16.1658 4.66918 0 -3.885 1.25009 0 -3.62422 -0.316157 0 -16.1498 4.78638 0
          4.77258 -16.1332 0 -1.08931 -7.56849 0 -3.06654 -12.608 0 -0.623283 -10.4564 0
          0.615791 -6.04253 0 1.05716 -4.03017 0 2.82267 -6.0343 0 -5.9581 2.87271 0
          1.59419 -2.1286 0 8.60584 3.72482 0 6.19543 3.2649 0 2.82709 -3.50343 0
          -3.50943 2.80932 0 0.557534 2.29307 0 -0.820254 -5.11176 0 -2.11139 1.60194 0
          5.92704 0.735972 0 7.53303 -1.35776 0 5.08827 -0.841844 0 0.776614 5.91242 0
          -0.860549 5.07069 0 -1.35247 7.53402 0 17.3205 10 0 13.5196 8.57749 0
          12.9838 4.87712 0 2.69367 -1.81166 0 -1.81486 2.64423 0 -10.4853 -0.34163 0
          -8.60996 2.68654 0 3.722 3.68986 0 1.84247 3.00219 0 9.49349 -3.93087 0
          -3.93952 9.49673 0 -8.01441 -2.57553 0 -4.2122 -4.72152 0 -12.5407 -2.23118 0
          -12.1336 -5.99626 0 1.71226 1.64816 0 9.15376 -13.601 0 10 -17.3205 0
          -13.6233 9.19822 0 -17.3205 10 0 -6.01785 -3.96076 0 -8.47959 -5.86621 0
          -10.1373 9.15217 0 -10.1717 12.9409 0 9.1744 -10.1367 0 12.972 -10.1681 0
          -0.630164 3.38474 0 0.679527 4.11353 0 -3.9443 -3.02038 0 -2.30669 -4.11901 0
          10 17.3205 0 8.37937 13.7265 0 -5.17638 -19.3185 0 -19.3185 -5.17638 0
          -1.78887 -1.54601 0 19.3185 -5.17638 0 -5.17638 19.3185 0 -12.9112 -10.1144 0
          -15.5284 -6.63843 0 -2.66984 5.71803 0 -4.41552 7.07441 0 6.97784 -4.38342 0
          5.71186 -2.63458 0 -6.7879 5.66261 0 5.66036 -6.75626 0 3.34466 -8.4869 0
          -10.4329 -3.54072 0 14.1421 -14.1421 0 -14.1421 14.1421 0 4.08788 -2.25102 0
          4.81383 -4.43375 0 -2.25102 4.08788 0 -4.41636 4.74747 0 -0.70291 1.95122 0
          5.17638 -19.3185 0 -19.3185 5.17638 0 19.3185 5.17638 0 5.17638 19.3185 0
          8.43986 -7.04615 0 11.6671 -6.66994 0 -6.67377 11.7359 0 -7.04849 8.44807 0
          -2.07831 -0.614173 0 2.59742 10.895 0 10.9011 2.58841 0 14.1421 14.1421 0
          -17.3205 -10 0 -12.6734 5.28364 0 5.29876 -12.5851 0 -9.55624 5.72086 0
          5.77759 -9.53824 0 1.10204 -8.20489 0 2.42678 -10.9255 0 4.32065 0.6506 0
          -9.21375 -9.27646 0 -6.44087 -11.638 0 -9.86541 -13.1909 0 -6.6303 -8.46169 0
          -7.12683 1.54592 0 15.2091 -6.11123 0 -6.13708 15.1519 0 -11.2304 2.6473 0
          2.0712 4.54161 0 -3.13258 -1.61796 0 1.30438 8.10234 0 8.16755 1.30913 0
          4.80228 13.0558 0 -6.13805 -15.3581 0 4.68874 1.9606 0 17.3205 -10 0
          -10 17.3205 0 -14.1421 -14.1421 0 -10 -17.3205 0
        </DataArray>
      </Points>
      <Cells>
        <DataArray type="Int32" Name="connectivity" NumberOfComponents="1" format="ascii">
          0 1 2 3 4 5 6 7 8 9 10 11
          12 8 7 12 5 4 12 9 11 12 0 2
          12 2 5 12 4 9 12 11 8 12 7 0
          5 2 1 9 4 3 0 7 6 10 8 11
          0 6 13 14 15 16 17 18 19 20 21 22
          23 24 25 26 27 28 29 30 31 32 33 34
          3 5 35 36 37 38 29 31 39 40 41 42
          43 44 45 15 46 47 18 48 49 43 50 44
          17 51 18 15 52 16 36 53 54 23 55 24
          20 22 56 28 27 57 22 58 59 60 61 62
          36 63 53 6 30 64 43 65 66 61 13 64
          67 62 61 63 68 53 9 69 10 60 57 70
          35 53 71 72 73 74 75 76 77 36 54 37
          78 52 79 32 43 33 80 79 52 6 8 30
          67 64 81 68 82 71 83 84 38 67 61 64
          85 39 86 47 87 73 48 77 88 89 38 37
          26 90 27 68 71 53 25 91 92 43 66 33
          86 39 93 59 28 57 94 95 56 96 55 97
          89 98 99 100 96 101 102 103 94 104 105 69
          106 41 107 108 109 51 57 27 70 20 110 21
          23 25 111 10 69 93 41 112 42 113 14 16
          114 17 19 115 116 92 77 117 118 73 119 120
          89 83 38 121 63 84 122 123 62 73 120 74
          77 76 117 0 13 42 89 124 83 15 14 46
          18 49 19 103 125 94 126 101 96 127 128 67
          129 68 130 3 71 131 104 131 82 22 21 58
          95 132 56 133 97 55 78 134 52 135 108 51
          102 136 137 138 139 100 35 5 140 124 92 91
          42 112 1 32 141 50 86 69 105 45 142 65
          44 109 143 144 116 115 45 44 79 96 145 55
          94 56 146 77 118 88 73 87 119 100 147 145
          102 146 148 59 149 150 89 99 124 29 81 30
          44 143 79 25 92 116 6 64 13 29 39 151
          32 50 43 43 45 65 152 153 154 40 13 61
          40 107 41 47 46 87 48 88 49 121 147 139
          122 136 148 138 100 101 102 137 103 17 135 51
          134 16 52 23 133 55 20 56 132 3 35 71
          26 28 155 59 58 28 149 123 150 84 156 38
          103 137 157 138 101 158 121 84 147 122 148 123
          81 64 30 24 83 91 50 109 44 40 61 70
          106 98 37 84 159 147 123 148 150 0 42 1
          83 159 84 75 34 160 40 42 13 54 161 37
          35 54 53 26 99 98 107 90 106 104 69 131
          162 48 141 163 142 47 50 164 109 108 143 109
          58 165 153 112 161 140 5 1 140 50 141 164
          45 80 142 85 166 39 89 37 98 164 51 109
          60 62 149 9 131 69 125 95 94 97 126 96
          72 66 163 75 162 34 127 120 128 129 130 117
          46 157 137 138 158 49 30 8 31 104 82 129
          29 127 81 58 21 165 152 154 115 152 115 92
          45 79 80 72 166 66 86 93 69 143 78 79
          100 145 96 102 94 146 67 81 127 68 129 82
          54 140 161 24 159 83 22 59 150 67 128 62
          63 130 68 82 131 71 154 153 165 18 141 48
          15 47 142 35 140 54 46 14 157 49 158 19
          103 157 167 168 158 101 169 144 115 145 147 159
          148 146 150 75 160 105 9 3 131 28 153 155
          10 31 8 85 160 34 77 48 162 73 163 47
          75 77 162 72 163 73 59 57 149 85 33 66
          152 155 153 100 139 147 102 148 136 85 66 166
          14 113 157 114 19 158 110 165 21 25 116 111
          28 58 153 137 87 46 138 49 88 60 70 61
          106 37 161 152 92 99 32 162 141 65 142 163
          60 149 57 137 136 87 138 88 139 167 125 103
          168 101 126 113 167 157 168 114 158 110 170 165
          144 111 116 170 154 165 170 169 154 121 130 63
          122 62 128 106 161 41 122 119 136 121 139 118
          24 91 25 85 86 160 136 119 87 139 88 118
          36 156 63 85 34 33 24 145 159 22 150 146
          26 155 99 18 164 141 15 142 80 140 1 112
          10 93 31 36 38 156 39 31 93 124 99 92
          104 76 105 62 123 149 107 27 90 83 124 91
          24 55 145 22 146 56 18 51 164 15 80 52
          65 163 66 32 34 162 107 70 27 29 151 74
          169 115 154 99 155 152 129 76 104 127 29 74
          40 70 107 117 130 118 128 120 119 39 166 151
          72 74 151 105 160 86 72 151 166 129 117 76
          127 74 120 98 106 90 75 105 76 63 156 84
          128 119 122 121 118 130 41 161 112 26 98 90
        </DataArray>
        <DataArray type="Int32" Name="offsets" NumberOfComponents="1" format="ascii">
          3 6 9 12 15 18 21 24 27 30 33 36
          39 42 45 48 51 54 57 60 63 66 69 72
          75 78 81 84 87 90 93 96 99 102 105 108
          111 114 117 120 123 126 129 132 135 138 141 144
          147 150 153 156 159 162 165 168 171 174 177 180
          183 186 189 192 195 198 201 204 207 210 213 216
          219 222 225 228 231 234 237 240 243 246 249 252
          255 258 261 264 267 270 273 276 279 282 285 288
          291 294 297 300 303 306 309 312 315 318 321 324
          327 330 333 336 339 342 345 348 351 354 357 360
          363 366 369 372 375 378 381 384 387 390 393 396
          399 402 405 408 411 414 417 420 423 426 429 432
          435 438 441 444 447 450 453 456 459 462 465 468
          471 474 477 480 483 486 489 492 495 498 501 504
          507 510 513 516 519 522 525 528 531 534 537 540
          543 546 549 552 555 558 561 564 567 570 573 576
          579 582 585 588 591 594 597 600 603 606 609 612
          615 618 621 624 627 630 633 636 639 642 645 648
          651 654 657 660 663 666 669 672 675 678 681 684
          687 690 693 696 699 702 705 708 711 714 717 720
          723 726 729 732 735 738 741 744 747 750 753 756
          759 762 765 768 771 774 777 780 783 786 789 792
          795 798 801 804 807 810 813 816 819 822 825 828
          831 834 837 840 843 846 849 852 855 858 861 864
          867 870 873 876 879 882 885 888 891 894 897 900
          903 906 909 912 915 918 921 924 927 930 933 936
          939 942 945 948
        </DataArray>
        <DataArray type="UInt8" Name="types" NumberOfComponents="1" format="ascii">
          5 5 5 5 5 5 5 5 5 5 5 5
          5 5 5 5 5 5 5 5 5 5 5 5
          5 5 5 5 5 5 5 5 5 5 5 5
          5 5 5 5 5 5 5 5 5 5 5 5
          5 5 5 5 5 5 5 5 5 5 5 5
          5 5 5 5 5 5 5 5 5 5 5 5
          5 5 5 5 5 5 5 5 5 5 5 5
          5 5 5 5 5 5 5 5 5 5 5 5
          5 5 5 5 5 5 5 5 5 5 5 5
          5 5 5 5 5 5 5 5 5 5 5 5
          5 5 5 5 5 5 5 5 5 5 5 5
          5 5 5 5 5 5 5 5 5 5 5 5
          5 5 5 5 5 5 5 5 5 5 5 5
          5 5 5 5 5 5 5 5 5 5 5 5
          5 5 5 5 5 5 5 5 5 5 5 5
          5 5 5 5 5 5 5 5 5 5 5 5
          5 5 5 5 5 5 5 5 5 5 5 5
          5 5 5 5 5 5 5 5 5 5 5 5
          5 5 5 5 5 5 5 5 5 5 5 5
          5 5 5 5 5 5 5 5 5 5 5 5
          5 5 5 5 5 5 5 5 5 5 5 5
          5 5 5 5 5 5 5 5 5 5 5 5
          5 5 5 5 5 5 5 5 5 5 5 5
          5 5 5 5 5 5 5 5 5 5 5 5
          5 5 5 5 5 5 5 5 5 5 5 5
          5 5 5 5 5 5 5 5 5 5 5 5
          5 5 5 5
        </DataArray>
      </Cells>
    </Piece>
  </UnstructuredGrid>
</VTKFile>
