<?xml version="1.0"?>
<VTKFile type="UnstructuredGrid" version="0.1" byte_order="LittleEndian">
  <UnstructuredGrid>
    <Piece NumberOfCells="316" NumberOfPoints="171">
      <PointData Vectors="neumann_data.r">
        <DataArray type="Float32" Name="neumann_data.r" NumberOfComponents="3" format="ascii">
          -141419 -847370 -1.19227e+07 -642381 -455066 -1.60169e+07 -1.59254e+06 -1.31214e+06 -2.62283e+07 -715144 374451 -8.64194e+06
          -1.69942e+06 1.19141e+06 -1.48877e+07 -928801 -79429.2 -6.94083e+06 405406 -722165 -1.6212e+07 1.23678e+06 -1.7062e+06 -2.7058e+07
          728839 -97036.4 -1.38048e+07 -87389.7 862273 -1.00814e+07 450922 609051 -2.88658e+06 1.30483e+06 1.5442e+06 -6.63804e+06
          721.813 3929.69 -4.58798e+06 0 0 0 0 0 0 0 0 0
          0 0 0 0 0 0 0 0 0 0 0 0
          0 0 0 0 0 0 0 0 0 0 0 0
          0 0 0 0 0 0 0 0 0 0 0 0
          0 0 0 0 0 0 0 0 0 0 0 0
          0 0 0 0 0 0 0 0 0 0 0 0
          0 0 0 0 0 0 0 0 0 0 0 0
          0 0 0 0 0 0 0 0 0 0 0 0
          0 0 0 0 0 0 0 0 0 0 0 0
          0 0 0 0 0 0 0 0 0 0 0 0
          0 0 0 0 0 0 0 0 0 0 0 0
          0 0 0 0 0 0 0 0 0 0 0 0
          0 0 0 0 0 0 0 0 0 0 0 0
          0 0 0 0 0 0 0 0 0 0 0 0
          0 0 0 0 0 0 0 0 0 0 0 0
          0 0 0 0 0 0 0 0 0 0 0 0
          0 0 0 0 0 0 0 0 0 0 0 0
          0 0 0 0 0 0 0 0 0 0 0 0
          0 0 0 0 0 0 0 0 0 0 0 0
          0 0 0 0 0 0 0 0 0 0 0 0
          0 0 0 0 0 0 0 0 0 0 0 0
          0 0 0 0 0 0 0 0 0 0 0 0
          0 0 0 0 0 0 0 0 0 0 0 0
          0 0 0 0 0 0 0 0 0 0 0 0
          0 0 0 0 0 0 0 0 0 0 0 0
          0 0 0 0 0 0 0 0 0 0 0 0
          0 0 0 0 0 0 0 0 0 0 0 0
          0 0 0 0 0 0 0 0 0 0 0 0
          0 0 0 0 0 0 0 0 0 0 0 0
          0 0 0 0 0 0 0 0 0 0 0 0
          0 0 0 0 0 0 0 0 0 0 0 0
          0 0 0 0 0 0 0 0 0 0 0 0
          0 0 0 0 0 0 0 0 0 0 0 0
          0 0 0 0 0 0 0 0 0 0 0 0
          0 0 0 0 0 0 0 0 0 0 0 0
          0 0 0 0 0 0 0 0 0 0 0 0
          0 0 0 0 0 0 0 0 0 0 0 0
          0 0 0 0 0 0 0 0 0 0 0 0
          0 0 0 0 0 0 0 0 0 0 0 0
          0 0 0 0 0 0 0 0 0
        </DataArray>
        <DataArray type="Float32" Name="neumann_data.i" NumberOfComponents="3" format="ascii">
          -133.617 -336.135 -327896 -280.573 -201.172 -200038 -637.595 -360.804 -570261 -272.32 345.248 -271561
          -640.29 652.157 -686884 -468.202 53.4938 -362957 164.66 -189.206 -234401 224.429 -353.185 -618754
          222.359 26.9414 -330862 -161.736 453.534 -367215 92.7323 191.451 -186941 106.363 408.043 -554729
          -251.92 63.3642 -545608 0 0 0 0 0 0 0 0 0
          0 0 0 0 0 0 0 0 0 0 0 0
          0 0 0 0 0 0 0 0 0 0 0 0
          0 0 0 0 0 0 0 0 0 0 0 0
          0 0 0 0 0 0 0 0 0 0 0 0
          0 0 0 0 0 0 0 0 0 0 0 0
          0 0 0 0 0 0 0 0 0 0 0 0
          0 0 0 0 0 0 0 0 0 0 0 0
          0 0 0 0 0 0 0 0 0 0 0 0
          0 0 0 0 0 0 0 0 0 0 0 0
          0 0 0 0 0 0 0 0 0 0 0 0
          0 0 0 0 0 0 0 0 0 0 0 0
          0 0 0 0 0 0 0 0 0 0 0 0
          0 0 0 0 0 0 0 0 0 0 0 0
          0 0 0 0 0 0 0 0 0 0 0 0
          0 0 0 0 0 0 0 0 0 0 0 0
          0 0 0 0 0 0 0 0 0 0 0 0
          0 0 0 0 0 0 0 0 0 0 0 0
          0 0 0 0 0 0 0 0 0 0 0 0
          0 0 0 0 0 0 0 0 0 0 0 0
          0 0 0 0 0 0 0 0 0 0 0 0
          0 0 0 0 0 0 0 0 0 0 0 0
          0 0 0 0 0 0 0 0 0 0 0 0
          0 0 0 0 0 0 0 0 0 0 0 0
          0 0 0 0 0 0 0 0 0 0 0 0
          0 0 0 0 0 0 0 0 0 0 0 0
          0 0 0 0 0 0 0 0 0 0 0 0
          0 0 0 0 0 0 0 0 0 0 0 0
          0 0 0 0 0 0 0 0 0 0 0 0
          0 0 0 0 0 0 0 0 0 0 0 0
          0 0 0 0 0 0 0 0 0 0 0 0
          0 0 0 0 0 0 0 0 0 0 0 0
          0 0 0 0 0 0 0 0 0 0 0 0
          0 0 0 0 0 0 0 0 0 0 0 0
          0 0 0 0 0 0 0 0 0 0 0 0
          0 0 0 0 0 0 0 0 0 0 0 0
          0 0 0 0 0 0 0 0 0 0 0 0
          0 0 0 0 0 0 0 0 0 0 0 0
          0 0 0 0 0 0 0 0 0 0 0 0
          0 0 0 0 0 0 0 0 0
        </DataArray>
        <DataArray type="Float32" Name="neumann_data.abs" NumberOfComponents="3" format="ascii">
          141419 847370 1.19272e+07 642381 455066 1.60181e+07 1.59254e+06 1.31214e+06 2.62345e+07 715144 374452 8.6462e+06
          1.69942e+06 1.19141e+06 1.49036e+07 928801 79429.3 6.95032e+06 405407 722166 1.62137e+07 1.23678e+06 1.7062e+06 2.70651e+07
          728839 97036.4 1.38087e+07 87389.8 862273 1.00881e+07 450922 609051 2.89263e+06 1.30483e+06 1.5442e+06 6.66118e+06
          764.512 3930.2 4.62031e+06 0 0 0 0 0 0 0 0 0
          0 0 0 0 0 0 0 0 0 0 0 0
          0 0 0 0 0 0 0 0 0 0 0 0
          0 0 0 0 0 0 0 0 0 0 0 0
          0 0 0 0 0 0 0 0 0 0 0 0
          0 0 0 0 0 0 0 0 0 0 0 0
          0 0 0 0 0 0 0 0 0 0 0 0
          0 0 0 0 0 0 0 0 0 0 0 0
          0 0 0 0 0 0 0 0 0 0 0 0
          0 0 0 0 0 0 0 0 0 0 0 0
          0 0 0 0 0 0 0 0 0 0 0 0
          0 0 0 0 0 0 0 0 0 0 0 0
          0 0 0 0 0 0 0 0 0 0 0 0
          0 0 0 0 0 0 0 0 0 0 0 0
          0 0 0 0 0 0 0 0 0 0 0 0
          0 0 0 0 0 0 0 0 0 0 0 0
          0 0 0 0 0 0 0 0 0 0 0 0
          0 0 0 0 0 0 0 0 0 0 0 0
          0 0 0 0 0 0 0 0 0 0 0 0
          0 0 0 0 0 0 0 0 0 0 0 0
          0 0 0 0 0 0 0 0 0 0 0 0
          0 0 0 0 0 0 0 0 0 0 0 0
          0 0 0 0 0 0 0 0 0 0 0 0
          0 0 0 0 0 0 0 0 0 0 0 0
          0 0 0 0 0 0 0 0 0 0 0 0
          0 0 0 0 0 0 0 0 0 0 0 0
          0 0 0 0 0 0 0 0 0 0 0 0
          0 0 0 0 0 0 0 0 0 0 0 0
          0 0 0 0 0 0 0 0 0 0 0 0
          0 0 0 0 0 0 0 0 0 0 0 0
          0 0 0 0 0 0 0 0 0 0 0 0
          0 0 0 0 0 0 0 0 0 0 0 0
          0 0 0 0 0 0 0 0 0 0 0 0
          0 0 0 0 0 0 0 0 0 0 0 0
          0 0 0 0 0 0 0 0 0 0 0 0
          0 0 0 0 0 0 0 0 0 0 0 0
          0 0 0 0 0 0 0 0 0 0 0 0
          0 0 0 0 0 0 0 0 0 0 0 0
          0 0 0 0 0 0 0 0 0 0 0 0
          0 0 0 0 0 0 0 0 0
        </DataArray>
      </PointData>
      <Points>
        <DataArray type="Float32" Name="Coordinates" NumberOfComponents="3" format="ascii">
          2.08167e-12 -1 0 -1 -1 0 -0.5 -0.5 0 -1 1 0
          -0.5 0.5 0 -1 -2.08167e-12 0 1 -1 0 0.5 -0.5 0
          1 2.08167e-12 0 -2.08167e-12 1 0 1 1 0 0.5 0.5 0
          9.25186e-18 4.62593e-18 0 0.45112 -2.29685 0 15.8667 -2.54999 0 14.0136 1.07843 0
          20 0 0 0 20 0 1.02732 14.0186 0 -2.57072 15.8518 0
          0 -20 0 -2.55202 -15.9483 0 1.02029 -14.0274 0 -20 0 0
          -14.066 1.11511 0 -15.4904 -2.85384 0 -5.61709 -6.27276 0 -2.89144 -6.02816 0
          -3.83609 -9.14432 0 3.32832 -0.42222 0 2.00925 -0.706942 0 1.98189 0.508947 0
          3.79638 8.23083 0 4.85061 5.52488 0 2.89954 6.03905 0 -2.27422 0.452572 0
          -5.73581 0.586202 0 -5.40297 -1.50235 0 -7.76978 -0.00472977 0 3.05961 1.56152 0
          -0.591269 -3.38417 0 -2.10715 -2.59027 0 -0.726241 -1.96777 0 7.04184 6.72568 0
          10.04 10.3551 0 10.3525 6.28305 0 12.5432 -3.0327 0 10.4352 -0.556582 0
          -0.569928 10.4212 0 -3.11124 12.4832 0 6.20086 10.4269 0 4.63317 16.1973 0
          16.1658 4.66918 0 -3.885 1.25009 0 -3.62422 -0.316157 0 -16.1498 4.78638 0
          4.77258 -16.1332 0 -1.08931 -7.56849 0 -3.06654 -12.608 0 -0.623283 -10.4564 0
          0.615791 -6.04253 0 1.05716 -4.03017 0 2.82267 -6.0343 0 -5.9581 2.87271 0
          1.59419 -2.1286 0 8.60584 3.72482 0 6.19543 3.2649 0 2.82709 -3.50343 0
          -3.50943 2.80932 0 0.557534 2.29307 0 -0.820254 -5.11176 0 -2.11139 1.60194 0
          5.92704 0.735972 0 7.53303 -1.35776 0 5.08827 -0.841844 0 0.776614 5.91242 0
          -0.860549 5.07069 0 -1.35247 7.53402 0 17.3205 10 0 13.5196 8.57749 0
          12.9838 4.87712 0 2.69367 -1.81166 0 -1.81486 2.64423 0 -10.4853 -0.34163 0
          -8.60996 2.68654 0 3.722 3.68986 0 1.84247 3.00219 0 9.49349 -3.93087 0
          -3.93952 9.49673 0 -8.01441 -2.57553 0 -4.2122 -4.72152 0 -12.5407 -2.23118 0
          -12.1336 -5.99626 0 1.71226 1.64816 0 9.15376 -13.601 0 10 -17.3205 0
          -13.6233 9.19822 0 -17.3205 10 0 -6.01785 -3.96076 0 -8.47959 -5.86621 0
          -10.1373 9.15217 0 -10.1717 12.9409 0 9.1744 -10.1367 0 12.972 -10.1681 0
          -0.630164 3.38474 0 0.679527 4.11353 0 -3.9443 -3.02038 0 -2.30669 -4.11901 0
          10 17.3205 0 8.37937 13.7265 0 -5.17638 -19.3185 0 -19.3185 -5.17638 0
          -1.78887 -1.54601 0 19.3185 -5.17638 0 -5.17638 19.3185 0 -12.9112 -10.1144 0
          -15.5284 -6.63843 0 -2.66984 5.71803 0 -4.41552 7.07441 0 6.97784 -4.38342 0
          5.71186 -2.63458 0 -6.7879 5.66261 0 5.66036 -6.75626 0 3.34466 -8.4869 0
          -10.4329 -3.54072 0 14.1421 -14.1421 0 -14.1421 14.1421 0 4.08788 -2.25102 0
          4.81383 -4.43375 0 -2.25102 4.08788 0 -4.41636 4.74747 0 -0.70291 1.95122 0
          5.17638 -19.3185 0 -19.3185 5.17638 0 19.3185 5.17638 0 5.17638 19.3185 0
          8.43986 -7.04615 0 11.6671 -6.66994 0 -6.67377 11.7359 0 -7.04849 8.44807 0
          -2.07831 -0.614173 0 2.59742 10.895 0 10.9011 2.58841 0 14.1421 14.1421 0
          -17.3205 -10 0 -12.6734 5.28364 0 5.29876 -12.5851 0 -9.55624 5.72086 0
          5.77759 -9.53824 0 1.10204 -8.20489 0 2.42678 -10.9255 0 4.32065 0.6506 0
          -9.21375 -9.27646 0 -6.44087 -11.638 0 -9.86541 -13.1909 0 -6.6303 -8.46169 0
          -7.12683 1.54592 0 15.2091 -6.11123 0 -6.13708 15.1519 0 -11.2304 2.6473 0
          2.0712 4.54161 0 -3.13258 -1.61796 0 1.30438 8.10234 0 8.16755 1.30913 0
          4.80228 13.0558 0 -6.13805 -15.3581 0 4.68874 1.9606 0 17.3205 -10 0
          -10 17.3205 0 -14.1421 -14.1421 0 -10 -17.3205 0
        </DataArray>
      </Points>
      <Cells>
        <DataArray type="Int32" Name="connectivity" NumberOfComponents="1" format="ascii">
          0 1 2 3 4 5 6 7 8 9 10 11
          12 8 7 12 5 4 12 9 11 12 0 2
          12 2 5 12 4 9 12 11 8 12 7 0
          5 2 1 9 4 3 0 7 6 10 8 11
          0 6 13 14 15 16 17 18 19 20 21 22
          23 24 25 26 27 28 29 30 31 32 33 34
          3 5 35 36 37 38 29 31 39 40 41 42
          43 44 45 15 46 47 18 48 49 43 50 44
          17 51 18 15 52 16 36 53 54 23 55 24
          20 22 56 28 27 57 22 58 59 60 61 62
          36 63 53 6 30 64 43 65 66 61 13 64
          67 62 61 63 68 53 9 69 10 60 57 70
          35 53 71 72 73 74 75 76 77 36 54 37
          78 52 79 32 43 33 80 79 52 6 8 30
          67 64 81 68 82 71 83 84 38 67 61 64
          85 39 86 47 87 73 48 77 88 89 38 37
          26 90 27 68 71 53 25 91 92 43 66 33
          86 39 93 59 28 57 94 95 56 96 55 97
          89 98 99 100 96 101 102 103 94 104 105 69
          106 41 107 108 109 51 57 27 70 20 110 21
          23 25 111 10 69 93 41 112 42 113 14 16
          114 17 19 115 116 92 77 117 118 73 119 120
          89 83 38 121 63 84 122 123 62 73 120 74
          77 76 117 0 13 42 89 124 83 15 14 46
          18 49 19 103 125 94 126 101 96 127 128 67
          129 68 130 3 71 131 104 131 82 22 21 58
          95 132 56 133 97 55 78 134 52 135 108 51
          102 136 137 138 139 100 35 5 140 124 92 91
          42 112 1 32 141 50 86 69 105 45 142 65
          44 109 143 144 116 115 45 44 79 96 145 55
          94 56 146 77 118 88 73 87 119 100 147 145
          102 146 148 59 149 150 89 99 124 29 81 30
          44 143 79 25 92 116 6 64 13 29 39 151
          32 50 43 43 45 65 152 153 154 40 13 61
          40 107 41 47 46 87 48 88 49 121 147 139
          122 136 148 138 100 101 102 137 103 17 135 51
          134 16 52 23 133 55 20 56 132 3 35 71
          26 28 155 59 58 28 149 123 150 84 156 38
          103 137 157 138 101 158 121 84 147 122 148 123
          81 64 30 24 83 91 50 109 44 40 61 70
          106 98 37 84 159 147 123 148 150 0 42 1
          83 159 84 75 34 160 40 42 13 54 161 37
          35 54 53 26 99 98 107 90 106 104 69 131
          162 48 141 163 142 47 50 164 109 108 143 109
          58 165 153 112 161 140 5 1 140 50 141 164
          45 80 142 85 166 39 89 37 98 164 51 109
          60 62 149 9 131 69 125 95 94 97 126 96
          72 66 163 75 162 34 127 120 128 129 130 117
          46 157 137 138 158 49 30 8 31 104 82 129
          29 127 81 58 21 165 152 154 115 152 115 92
          45 79 80 72 166 66 86 93 69 143 78 79
          100 145 96 102 94 146 67 81 127 68 129 82
          54 140 161 24 159 83 22 59 150 67 128 62
          63 130 68 82 131 71 154 153 165 18 141 48
          15 47 142 35 140 54 46 14 157 49 158 19
          103 157 167 168 158 101 169 144 115 145 147 159
          148 146 150 75 160 105 9 3 131 28 153 155
          10 31 8 85 160 34 77 48 162 73 163 47
          75 77 162 72 163 73 59 57 149 85 33 66
          152 155 153 100 139 147 102 148 136 85 66 166
          14 113 157 114 19 158 110 165 21 25 116 111
          28 58 153 137 87 46 138 49 88 60 70 61
          106 37 161 152 92 99 32 162 141 65 142 163
          60 149 57 137 136 87 138 88 139 167 125 103
          168 101 126 113 167 157 168 114 158 110 170 165
          144 111 116 170 154 165 170 169 154 121 130 63
          122 62 128 106 161 41 122 119 136 121 139 118
          24 91 25 85 86 160 136 119 87 139 88 118
          36 156 63 85 34 33 24 145 159 22 150 146
          26 155 99 18 164 141 15 142 80 140 1 112
          10 93 31 36 38 156 39 31 93 124 99 92
          104 76 105 62 123 149 107 27 90 83 124 91
          24 55 145 22 146 56 18 51 164 15 80 52
          65 163 66 32 34 162 107 70 27 29 151 74
          169 115 154 99 155 152 129 76 104 127 29 74
          40 70 107 117 130 118 128 120 119 39 166 151
          72 74 151 105 160 86 72 151 166 129 117 76
          127 74 120 98 106 90 75 105 76 63 156 84
          128 119 122 121 118 130 41 161 112 26 98 90
        </DataArray>
        <DataArray type="Int32" Name="offsets" NumberOfComponents="1" format="ascii">
          3 6 9 12 15 18 21 24 27 30 33 36
          39 42 45 48 51 54 57 60 63 66 69 72
          75 78 81 84 87 90 93 96 99 102 105 108
          111 114 117 120 123 126 129 132 135 138 141 144
          147 150 153 156 159 162 165 168 171 174 177 180
          183 186 189 192 195 198 201 204 207 210 213 216
          219 222 225 228 231 234 237 240 243 246 249 252
          255 258 261 264 267 270 273 276 279 282 285 288
          291 294 297 300 303 306 309 312 315 318 321 324
          327 330 333 336 339 342 345 348 351 354 357 360
          363 366 369 372 375 378 381 384 387 390 393 396
          399 402 405 408 411 414 417 420 423 426 429 432
          435 438 441 444 447 450 453 456 459 462 465 468
          471 474 477 480 483 486 489 492 495 498 501 504
          507 510 513 516 519 522 525 528 531 534 537 540
          543 546 549 552 555 558 561 564 567 570 573 576
          579 582 585 588 591 594 597 600 603 606 609 612
          615 618 621 624 627 630 633 636 639 642 645 648
          651 654 657 660 663 666 669 672 675 678 681 684
          687 690 693 696 699 702 705 708 711 714 717 720
          723 726 729 732 735 738 741 744 747 750 753 756
          759 762 765 768 771 774 777 780 783 786 789 792
          795 798 801 804 807 810 813 816 819 822 825 828
          831 834 837 840 843 846 849 852 855 858 861 864
          867 870 873 876 879 882 885 888 891 894 897 900
          903 906 909 912 915 918 921 924 927 930 933 936
          939 942 945 948
        </DataArray>
        <DataArray type="UInt8" Name="types" NumberOfComponents="1" format="ascii">
          5 5 5 5 5 5 5 5 5 5 5 5
          5 5 5 5 5 5 5 5 5 5 5 5
          5 5 5 5 5 5 5 5 5 5 5 5
          5 5 5 5 5 5 5 5 5 5 5 5
          5 5 5 5 5 5 5 5 5 5 5 5
          5 5 5 5 5 5 5 5 5 5 5 5
          5 5 5 5 5 5 5 5 5 5 5 5
          5 5 5 5 5 5 5 5 5 5 5 5
          5 5 5 5 5 5 5 5 5 5 5 5
          5 5 5 5 5 5 5 5 5 5 5 5
          5 5 5 5 5 5 5 5 5 5 5 5
          5 5 5 5 5 5 5 5 5 5 5 5
          5 5 5 5 5 5 5 5 5 5 5 5
          5 5 5 5 5 5 5 5 5 5 5 5
          5 5 5 5 5 5 5 5 5 5 5 5
          5 5 5 5 5 5 5 5 5 5 5 5
          5 5 5 5 5 5 5 5 5 5 5 5
          5 5 5 5 5 5 5 5 5 5 5 5
          5 5 5 5 5 5 5 5 5 5 5 5
          5 5 5 5 5 5 5 5 5 5 5 5
          5 5 5 5 5 5 5 5 5 5 5 5
          5 5 5 5 5 5 5 5 5 5 5 5
          5 5 5 5 5 5 5 5 5 5 5 5
          5 5 5 5 5 5 5 5 5 5 5 5
          5 5 5 5 5 5 5 5 5 5 5 5
          5 5 5 5 5 5 5 5 5 5 5 5
          5 5 5 5
        </DataArray>
      </Cells>
    </Piece>
  </UnstructuredGrid>
</VTKFile>
